LAMMPS data file Created by - ligpargen with RESP charges from DFT dft_hyb_wb97xd3 calculations

10 atoms
9 bonds
14 angles
15 dihedrals
0 impropers

10 atom types
9 bond types
14 angle types
15 dihedral types
0 improper types

-3.272220    46.727780 xlo xhi
-1.115950    48.884050 ylo yhi
-3.196630    46.803370 zlo zhi

Masses

1     14.007  
2     12.011  
3     12.011  
4     12.011  
5     12.011  
6     14.007  
7      1.008  
8      1.008  
9      1.008  
10      1.008  

Pair Coeffs 

1      0.170  3.2000000 
2      0.066  3.3000000 
3      0.066  3.5000000 
4      0.066  3.5000000 
5      0.066  3.3000000 
6      0.170  3.2000000 
7      0.030  2.5000000 
8      0.030  2.5000000 
9      0.030  2.5000000 
10      0.030  2.5000000 

Bond Coeffs 

1   650.0000     1.1570 
2   390.0000     1.4700 
3   268.0000     1.5290 
4   390.0000     1.4700 
5   650.0000     1.1570 
6   340.0000     1.0900 
7   340.0000     1.0900 
8   340.0000     1.0900 
9   340.0000     1.0900 

Angle Coeffs 

1    150.000    180.000
2     58.350    112.700
3     58.350    112.700
4    150.000    180.000
5     35.000    108.500
6     35.000    108.500
7     37.500    110.700
8     37.500    110.700
9     37.500    110.700
10     37.500    110.700
11     35.000    108.500
12     35.000    108.500
13     33.000    107.800
14     33.000    107.800

Dihedral Coeffs  

1      0.000      0.000      0.000      0.000 
2      0.000     -0.650      0.000      0.000 
3      0.000      0.000      0.000      0.000 
4      0.000      0.000      0.000      0.000 
5      0.000      0.000      0.000      0.000 
6      0.000      0.000      0.366      0.000 
7      0.000      0.000      0.366      0.000 
8      0.000      0.000      0.366      0.000 
9      0.000      0.000      0.366      0.000 
10      0.000      0.000      0.000      0.000 
11      0.000      0.000      0.000      0.000 
12      0.000      0.000      0.300      0.000 
13      0.000      0.000      0.300      0.000 
14      0.000      0.000      0.300      0.000 
15      0.000      0.000      0.300      0.000 

Atoms 

1      1      1 -0.430176    1.000  1.00000  0.00000
2      1      2 0.303157   -0.158  1.00000  0.00000
3      1      3 -0.104753   -1.612  1.00000  0.00184
4      1      4 -0.104113   -2.168 -0.21488 -0.70501
5      1      5 0.302543   -1.703 -0.23026 -2.11423
6      1      6 -0.429978   -1.347 -0.24327 -3.19663
7      1      7 0.111604   -1.967  1.94376 -0.42353
8      1      8 0.119967   -2.014  0.95322  1.04802
9      1      9 0.111822   -1.767 -1.11595 -0.19770
10      1     10 0.119928   -3.272 -0.16570 -0.67344

Bonds 

1      1      2      1
2      2      3      2
3      3      4      3
4      4      5      4
5      5      6      5
6      6      7      3
7      7      8      3
8      8      9      4
9      9     10      4

Angles 

1      1      1      2      3
2      2      2      3      4
3      3      3      4      5
4      4      4      5      6
5      5      2      3      7
6      6      2      3      8
7      7      3      4      9
8      8      3      4     10
9      9      4      3      7
10     10      4      3      8
11     11      5      4      9
12     12      5      4     10
13     13      7      3      8
14     14      9      4     10

Dihedrals

1      1      4      3      2      1 
2      2      5      4      3      2 
3      3      6      5      4      3 
4      4      7      3      2      1 
5      5      8      3      2      1 
6      6      9      4      3      2 
7      7     10      4      3      2 
8      8      7      3      4      5 
9      9      8      3      4      5 
10     10      9      4      5      6 
11     11     10      4      5      6 
12     12      9      4      3      7 
13     13     10      4      3      7 
14     14      9      4      3      8 
15     15     10      4      3      8 
