LAMMPS data file generated by AuTopology for [Li+].

1 atoms

1 atom types

+0.00000e+00  +0.00000e+00  xlo xhi
+0.00000e+00  +0.00000e+00  ylo yhi
+0.00000e+00  +0.00000e+00  zlo zhi

Masses

1 +6.94000e+00  

Pair Coeffs

1 +1.80000e-02  +2.13000e+00  

Atoms

1 1 1 +1.0000e+00  +0.00000e+00  +0.00000e+00  +0.00000e+00  

