created by fftool

9 atoms
8 bonds
13 angles
6 dihedrals
4 atom types
3 bond types
5 angle types
2 dihedral types

0.000000 11.841855 xlo xhi
0.000000 11.841855 ylo yhi
0.000000 11.841855 zlo zhi

Masses

   1   18.998
   2   32.067
   3   14.007
   4   15.999

Pair Coeffs

1 0.053  2.95  
2 0.250  3.55  
3 0.170  3.25  
4 0.210  2.96  


Bond Coeffs

   1   224.545889     1.575000
   2   374.880497     1.570000
   3   637.069790     1.437000

Angle Coeffs

   1   107.791587   103.000000
   2   128.704589   104.100000
   3    94.287763   113.600000
   4   115.798279   118.500000
   5    80.186424   125.600000

Dihedral Coeffs

   1     2.735421    -3.629541    -0.767686     0.000000
   2     0.000000     0.000000    -0.003585     0.000000

Atoms

1      1      3  -0.660000    1.000  1.00000  0.00000
2      1      2   1.020000   -0.711  1.00000  0.00000
3      1      4  -0.530000   -1.298  1.00000  1.37283
4      1      4  -0.530000   -1.151  2.23156 -0.77636
5      1      1  -0.130000   -1.337 -0.31755 -0.84372
6      1      2   1.020000    1.672  1.39624  1.52906
7      1      4  -0.530000    3.110  1.80746  1.28785
8      1      4  -0.530000    1.686  0.19842  2.43310
9      1      1  -0.130000    0.810  2.63795  2.26573


Bonds

1      2      2      1
2      3      3      2
3      3      4      2
4      1      5      2
5      2      6      1
6      3      7      6
7      3      8      6
8      1      9      6


Angles

1      3      1      2      3
2      3      1      2      4
3      1      1      2      5
4      5      2      1      6
5      3      1      6      7
6      3      1      6      8
7      1      1      6      9
8      4      3      2      4
9      2      3      2      5
10     2      4      2      5
11     4      7      6      8
12     2      7      6      9
13     2      8      6      9


Dihedrals


1      2      6      1      2      3 
2      2      7      6      1      2 
3      2      8      6      1      2 
4      1      9      6      1      2 
5      2      6      1      2      4 
6      1      6      1      2      5 

