LAMMPS data file hand-converted from https://pubs.acs.org/doi/full/10.1021/acs.jctc.7b00520?ref=recommended

15 atoms
14 bonds
25 angles
24 dihedrals

5 atom types
4 bond types
11 angle types
8 dihedral types

-50.0 50.0  xlo xhi
-50.0 50.0  ylo yhi
-50.0 50.0  zlo zhi

Masses

1 15.999
2 32.067 
3 14.007  
4 12.011  
5 18.998  

Pair Coeffs

1 0.210  2.96  
2 0.250  3.55  
3 0.170  3.25  
4 0.066  3.50  
5 0.053  2.95  

Bond Coeffs

1 318.535  1.437
2 187.440  1.570
3 116.515  1.818
4 220.960  1.323

Angle Coeffs

1  57.900  118.5 
2  47.145  113.6 
3  51.985  102.6 
4  45.650  103.5 
5  40.095  125.6 
6  47.145  113.6 
7  41.465  111.7 
8  46.665  107.1 
9  51.985  102.6 
10 45.650  103.5
11 41.465  111.7

Dihedral Coeffs

1 +0.000 +0.000 -0.004 +0.000  
2 +0.000 +0.000 +0.347 +0.000  
3 +0.000 +0.000 +0.316 +0.000  
4 +7.833 -2.490 -0.764 +0.000  
5 +0.000 +0.000 -0.004 +0.000  
6 +0.000 +0.000 +0.347 +0.000  
7 +0.000 +0.000 +0.316 +0.000  
8 +7.833 -2.490 -0.764 +0.000  

Atoms

1 1 1  -0.553871429  +9.00156e-01  -4.20501e-01  -1.80583e+00  
2 1 2   1.107471429  +1.41223e+00  -6.17275e-01  -4.11729e-01  
3 1 1  -0.553871429  +2.55710e+00  -1.58480e+00  -1.88627e-01  
4 1 3  -0.9895  +2.37338e-01  -1.05116e+00  +6.83482e-01  
5 1 2   1.107471429  -1.15037e+00  -3.02875e-01  +9.92439e-01  
6 1 1  -0.553871429  -1.94980e+00  -1.01372e+00  +2.00326e+00  
7 1 1  -0.553871429  -1.09371e+00  +1.12236e+00  +1.15435e+00  
8 1 4   0.393142857  -2.28939e+00  -4.29727e-01  -4.74556e-01  
9 1 5  -0.132714286  -3.62282e+00  -3.58220e-01  -8.66993e-02  
10 1 5 -0.132714286  -2.00356e+00  -1.62349e+00  -1.02394e+00  
11 1 5 -0.132714286  -2.04739e+00  +5.23259e-01  -1.31633e+00  
12 1 4  0.393142857  +2.13121e+00  +1.12764e+00  +4.02042e-02  
13 1 5 -0.132714286  +1.30699e+00  +2.07822e+00  -3.65154e-01  
14 1 5 -0.132714286  +2.29407e+00  +1.25417e+00  +1.36243e+00  
15 1 5 -0.132714286  +3.31795e+00  +1.29612e+00  -5.63301e-01  

Bonds

1 1 1 2 
2 1 2 3 
3 2 2 4 
4 3 2 12 
5 2 4 5 
6 1 5 6 
7 1 5 7 
8 3 5 8 
9 4 8 9 
10 4 8 10 
11 4 8 11 
12 4 12 13 
13 4 12 14 
14 4 12 15 

Angles

1 1 1 2 3 
2 2 1 2 4 
3 3 1 2 12 
4 2 3 2 4 
5 3 3 2 12 
6 4 4 2 12 
7 5 2 4 5 
8 6 4 5 6 
9 6 4 5 7 
10 4 4 5 8 
11 1 6 5 7 
12 3 6 5 8 
13 3 7 5 8 
14 7 5 8 9 
15 7 5 8 10 
16 7 5 8 11 
17 8 9 8 10 
18 8 9 8 11 
19 8 10 8 11 
20 7 2 12 13 
21 7 2 12 14 
22 7 2 12 15 
23 8 13 12 14 
24 8 13 12 15 
25 8 14 12 15 

Dihedrals

1 1 1 2 4 5 
2 1 3 2 4 5 
3 2 1 2 12 13 
4 2 1 2 12 14 
5 2 1 2 12 15 
6 2 3 2 12 13 
7 2 3 2 12 14 
8 2 3 2 12 15 
9 3 4 2 12 13 
10 3 4 2 12 14 
11 3 4 2 12 15 
12 4 5 4 2 12 
13 5 2 4 5 6 
14 5 2 4 5 7 
15 4 2 4 5 8 
16 3 4 5 8 9 
17 3 4 5 8 10 
18 3 4 5 8 11 
19 2 6 5 8 9 
20 2 6 5 8 10 
21 2 6 5 8 11 
22 2 7 5 8 9 
23 2 7 5 8 10 
24 2 7 5 8 11 

