created by fftool

7 atoms
6 bonds
12 angles
2 atom types
1 bond types
1 angle types
0.000000 11.841855 xlo xhi
0.000000 11.841855 ylo yhi
0.000000 11.841855 zlo zhi

Masses

1   30.974
2   18.998

Pair Coeffs

1 0.200  3.74 
2 0.053  2.95  

Bond Coeffs

   1   370.458891     1.606000

Angle Coeffs

   1   139.220841    90.000000

Atoms

   1      1      2  -0.390000    1.000  1.00000  0.00000
   2      1      1   1.340000   -0.666  1.00000  0.00000
   3      1      2  -0.390000   -1.095  1.00000  1.61275
   4      1      2  -0.390000   -0.653  0.47078 -1.57043
   5      1      2  -0.390000   -0.666 -0.62495  0.37968
   6      1      2  -0.390000   -1.530  2.10515 -0.88319
   7      1      2  -0.390000    0.601  1.64154 -0.89710

Bonds

1      1      1      2
2      1      3      2
3      1      4      2
4      1      5      2
5      1      6      2
6      1      7      2


Angles

     1     1       1      2      3
     2     1       1      2      4
     3     1       1      2      5
     4     1       1      2      6
     5     1       3      2      4
     6     1       3      2      5
     7     1       3      2      7
     8     1       4      2      6
     9     1       4      2      7
    10     1       5      2      6
    11     1       5      2      7
    12     1       6      2      7
